LAMMPS data file via write_data, version 3 Mar 2020, timestep = 100000

1024 atoms
1 atom types

0.0000000000000000e+00 3.5200000000000003e+01 xlo xhi
0.0000000000000000e+00 3.5200000000000003e+01 ylo yhi
0.0000000000000000e+00 3.5200000000000003e+01 zlo zhi
0.0000000000000000e+00 0.0000000000000000e+00 0.0000000000000000e+00 xy xz yz

Masses

1 22.9898

Atoms # full

889 0 1 0.0000000000000000e+00 1.2187848480923275e+01 1.5618976042055062e+01 6.0333863046914848e-01 0 1 1
388 0 1 0.0000000000000000e+00 1.0923728030568032e+01 3.2072515167844466e+00 7.7567890256011385e+00 0 1 0
96 0 1 0.0000000000000000e+00 5.2614127198104645e+00 5.6445018313155746e+00 4.0818659945465461e+00 0 0 1
277 0 1 0.0000000000000000e+00 1.5739806289726892e+00 1.6375215806067519e+01 5.3400863712501527e+00 0 0 0
359 0 1 0.0000000000000000e+00 7.3404209946487677e+00 2.4626895574939280e+00 1.0182385758174092e+01 0 1 0
839 0 1 0.0000000000000000e+00 7.9488104789072942e+00 1.6383766567037863e+01 6.4618129892152343e+00 1 0 0
872 0 1 0.0000000000000000e+00 1.1979870874199628e+01 4.3460869816481207e+00 1.8192979672945797e+00 0 1 0
47 0 1 0.0000000000000000e+00 1.5909906217883003e+00 5.0526372590005000e+00 6.4621731612374873e+00 0 0 0
227 0 1 0.0000000000000000e+00 8.6331782147023119e+00 1.4981737413095571e+01 3.0896650306508682e+00 0 0 1
642 0 1 0.0000000000000000e+00 1.1427837698858662e+01 5.9322326699707029e+00 5.1759662770792314e+00 0 0 0
799 0 1 0.0000000000000000e+00 1.7475762209614938e+01 1.0340304235496200e+01 7.0209041797455907e+00 0 0 0
508 0 1 0.0000000000000000e+00 4.7123483840365568e+00 7.3258650006752317e+00 7.3665894543018320e+00 1 0 0
44 0 1 0.0000000000000000e+00 8.9457948217636645e+00 6.3910573966434994e+00 1.5858793988441973e+00 0 0 0
530 0 1 0.0000000000000000e+00 7.9546770934477404e+00 9.6669672308501686e-01 6.7913886752228025e+00 0 0 0
814 0 1 0.0000000000000000e+00 1.4486148384449681e+01 8.1137098121466860e+00 6.1881623336188571e+00 0 1 0
461 0 1 0.0000000000000000e+00 1.2135701405831469e+01 1.5957897792161060e-01 1.0243958844039065e+00 0 1 1
173 0 1 0.0000000000000000e+00 2.3075033384987225e+00 3.4267250101830782e+00 3.1421811173038932e+00 0 0 1
16 0 1 0.0000000000000000e+00 4.0757845609050092e+00 8.8574721825322147e+00 1.0768287189134066e+01 0 0 0
817 0 1 0.0000000000000000e+00 5.6082495796210212e+00 1.2679170891088658e+01 2.1309373748334801e+00 0 0 0
608 0 1 0.0000000000000000e+00 2.3910496492147062e+00 1.4780882925109259e+01 2.1213862120366156e+00 1 0 0
579 0 1 0.0000000000000000e+00 1.5246113529009536e+01 2.2971838423143258e+00 1.9886989227641561e+00 0 0 0
801 0 1 0.0000000000000000e+00 1.3936432831270555e+01 5.4077202938886506e+00 8.7182958538310711e+00 0 1 0
989 0 1 0.0000000000000000e+00 1.4053534041079798e+01 1.6688434291268720e+01 7.5424477852743310e+00 0 0 1
271 0 1 0.0000000000000000e+00 4.8575533185444613e+00 1.4364625861792700e+01 5.4888249968471987e+00 0 1 0
831 0 1 0.0000000000000000e+00 8.2610502807397186e+00 7.9549553772874004e+00 4.9293488209627752e+00 0 0 0
1021 0 1 0.0000000000000000e+00 9.7417498719395679e-01 6.6260164533397496e+00 9.8569804200684796e+00 1 1 0
45 0 1 0.0000000000000000e+00 1.1445747891223940e+01 1.5330306298906113e+00 4.4325434746952093e+00 0 0 0
436 0 1 0.0000000000000000e+00 1.0523036473305405e+01 1.5921108807960747e+01 1.0020918557829013e+01 0 0 0
958 0 1 0.0000000000000000e+00 4.8037359522177017e+00 3.0513850641483753e+00 6.7455278424108034e+00 1 1 1
812 0 1 0.0000000000000000e+00 4.5165003504501371e+00 1.1636938142374962e+01 8.1472401008620565e+00 1 1 0
832 0 1 0.0000000000000000e+00 1.7177021684248349e+01 3.3803221801183674e+00 8.9039620962366612e+00 0 0 0
76 0 1 0.0000000000000000e+00 1.0897158627857182e+01 7.5326583672937364e+00 8.5659031970635571e+00 0 0 0
3 0 1 0.0000000000000000e+00 5.4774776513283490e+00 1.4668444360077717e+00 3.2646985712952268e+00 0 0 0
360 0 1 0.0000000000000000e+00 1.1702219303280080e+01 1.7128159584641775e+01 4.0790031907666986e+00 -1 1 0
857 0 1 0.0000000000000000e+00 8.7567543324054569e+00 1.0761245449160091e+01 2.3896140367392196e+00 1 0 0
34 0 1 0.0000000000000000e+00 1.4588552801299475e+01 3.9622352037530191e+00 5.2944475383794360e+00 0 0 0
383 0 1 0.0000000000000000e+00 1.4382625113112127e+01 1.2360161906601242e+01 6.8510026930835659e+00 0 0 0
108 0 1 0.0000000000000000e+00 7.2171497820787884e+00 6.7242197191672162e+00 1.0955012914247773e+01 0 0 0
942 0 1 0.0000000000000000e+00 1.1848191345157332e+01 1.2934536248518341e+01 3.2445896037931208e+00 0 0 1
568 0 1 0.0000000000000000e+00 1.0362381278979985e+01 4.7553470905085415e+00 1.1145581142019649e+01 1 0 0
557 0 1 0.0000000000000000e+00 1.0726739099013891e+01 1.1773803838804250e+01 9.3577182351228991e+00 1 0 0
728 0 1 0.0000000000000000e+00 1.5090717358476528e+01 6.6017488425941897e+00 2.7184609880581623e+00 0 0 1
815 0 1 0.0000000000000000e+00 1.7974917518242857e+00 8.4690342323218182e-01 5.8269676484190551e+00 0 1 0
1014 0 1 0.0000000000000000e+00 5.5024670224408530e+00 1.7014889274406368e+01 2.8357866689444187e+00 0 0 1
711 0 1 0.0000000000000000e+00 7.5126075800304095e+00 1.3765464431593339e+01 9.1191274608826944e+00 0 0 0
46 0 1 0.0000000000000000e+00 1.8562795395552332e+00 1.1943433523198831e+01 4.6390103278077142e+00 0 0 0
662 0 1 0.0000000000000000e+00 1.1283452439499667e+01 1.0291053965042860e+01 5.8940849586712885e+00 1 0 0
542 0 1 0.0000000000000000e+00 7.7164598915053082e+00 9.5677710895675094e+00 8.3510586946550589e+00 1 0 0
85 0 1 0.0000000000000000e+00 8.0729800527989930e+00 1.2302302699028761e+01 5.7540797459456332e+00 0 0 0
283 0 1 0.0000000000000000e+00 4.2103998154612787e+00 4.5916124672165797e+00 1.0039038967426022e+01 0 1 0
371 0 1 0.0000000000000000e+00 4.3161479089863857e+00 1.5689935561383955e+01 8.9760937597446215e+00 0 0 0
882 0 1 0.0000000000000000e+00 5.6246520874670365e+00 8.4325838711535397e+00 1.4804170304386954e+00 1 0 1
15 0 1 0.0000000000000000e+00 7.8041680575191261e+00 5.2283059629970703e+00 7.5659600947709000e+00 0 0 0
272 0 1 0.0000000000000000e+00 1.2952121741026990e+00 1.3514813825461607e+01 7.8856263031001932e+00 1 0 0
400 0 1 0.0000000000000000e+00 1.3538621347807867e+01 2.6421027948700209e+00 1.1347185784996691e+01 0 1 0
776 0 1 0.0000000000000000e+00 1.4969130167423886e+01 1.4987414890181602e+01 4.2817073159266741e+00 0 0 0
92 0 1 0.0000000000000000e+00 1.6819485322703461e+01 1.6167934307600522e+01 1.1153948227465850e+01 -1 -1 0
162 0 1 0.0000000000000000e+00 4.1551309247435526e+00 4.0224640774365344e-01 9.3293354820791095e+00 0 0 0
747 0 1 0.0000000000000000e+00 2.1008939439798393e+00 7.7581494476367610e+00 3.8138142716657693e+00 1 0 1
985 0 1 0.0000000000000000e+00 1.3738680922417446e+01 1.3949194831121911e+01 1.0211939656445523e+01 1 0 0
29 0 1 0.0000000000000000e+00 1.1137830215691119e+01 1.4392847591997780e+01 6.6979446607158915e+00 0 0 0
938 0 1 0.0000000000000000e+00 8.4672633287272936e-01 1.0807427024893157e+01 1.0599140029044094e+01 1 1 1
133 0 1 0.0000000000000000e+00 1.5073312112803920e+01 1.0721681396961676e+01 3.5350081203299490e+00 0 0 1
217 0 1 0.0000000000000000e+00 8.4179485748505165e+00 3.7481076607026216e+00 4.1896403388255177e+00 0 0 1
142 0 1 0.0000000000000000e+00 1.6987768555986779e+01 1.1994860110345067e+01 1.0343893321754775e+01 0 0 0
723 0 1 0.0000000000000000e+00 1.1894096336250582e+01 8.7318393568233290e+00 2.6559195205613042e+00 0 0 1
533 0 1 0.0000000000000000e+00 2.6564205405327130e+00 1.0544676956406335e+01 1.2100167151616956e+00 1 0 0
775 0 1 0.0000000000000000e+00 5.1373723774062983e+00 1.0036757035666586e+01 4.8748266926448283e+00 1 1 0
550 0 1 0.0000000000000000e+00 1.3955376576200500e+01 9.7322447434457438e+00 9.4948952925255785e+00 0 0 0
759 0 1 0.0000000000000000e+00 1.5370155282911133e+00 9.3243330318948470e+00 7.2091523811530793e+00 1 0 1
937 0 1 0.0000000000000000e+00 8.9738528864472578e+00 2.1449757149178068e+00 8.3145888447991734e-01 0 1 1
181 0 1 0.0000000000000000e+00 1.7124130137517888e+01 7.6488259665307972e+00 9.6781223449819329e+00 0 0 0
65 0 1 0.0000000000000000e+00 1.4144777404539424e+01 1.2745686900884372e+00 7.9283759963959222e+00 0 0 0
89 0 1 0.0000000000000000e+00 1.5354267641768736e+01 1.3512889565912628e+01 8.5916086205839592e-01 -1 0 0
510 0 1 0.0000000000000000e+00 1.0896606376538638e+00 2.4156446192458731e+00 9.1152495765739854e+00 1 1 0
718 0 1 0.0000000000000000e+00 2.6561411413618710e+00 6.1464495648535840e+00 4.7506501986337735e-01 1 0 1
301 0 1 0.0000000000000000e+00 5.8225505313090231e+00 4.2516059741303973e+00 5.8615224615400108e-01 0 0 0
214 0 1 0.0000000000000000e+00 1.0462781099989025e+01 5.0205979296208481e-01 1.0367275721008756e+01 0 0 1
996 0 1 0.0000000000000000e+00 1.7297456372077448e+01 1.4704542548265302e+01 7.6272649648781892e+00 0 1 0
941 0 1 0.0000000000000000e+00 8.4369192286331585e-01 1.5035675040189918e+01 1.1233440065991708e+01 1 0 1
558 0 1 0.0000000000000000e+00 3.9076199038358763e+00 1.2987548314032493e+01 1.1662634405204521e+01 1 0 0
810 0 1 0.0000000000000000e+00 1.6613115683277282e+01 7.5684866494427439e-01 1.1475585035326494e+01 0 1 0
452 0 1 0.0000000000000000e+00 1.5432874502909879e+01 9.3116765561345183e+00 8.8039463054556774e-02 0 1 1
119 0 1 0.0000000000000000e+00 7.0908632584616837e+00 1.1053686720175216e+01 1.1717275763301247e+01 0 -1 0
763 0 1 0.0000000000000000e+00 4.8811965561480308e+00 4.2743256041690847e+00 2.2983424683991441e+01 1 1 0
211 0 1 0.0000000000000000e+00 8.5748718314561838e+00 4.9874749140340571e+00 2.0411453982543858e+01 0 0 0
486 0 1 0.0000000000000000e+00 1.3335544607006284e+01 6.9689467947551202e+00 1.2069289007776733e+01 0 0 0
143 0 1 0.0000000000000000e+00 6.3911711941665601e+00 1.2608337798560264e+01 1.5068307683282859e+01 0 0 0
332 0 1 0.0000000000000000e+00 1.6080723027464586e+01 2.1588496811332698e+00 1.4921497105048871e+01 0 1 0
758 0 1 0.0000000000000000e+00 1.1367360751518650e+01 1.5722154609164662e+01 2.2939856777037534e+01 0 0 0
624 0 1 0.0000000000000000e+00 1.7974853877696728e+00 2.0708505882597881e+00 2.2075511706984464e+01 1 0 0
837 0 1 0.0000000000000000e+00 1.2885598347673298e+01 4.2319389483317655e+00 1.4551030531791842e+01 0 1 -1
660 0 1 0.0000000000000000e+00 1.3243910149264220e+01 1.1160054129707893e+01 1.2860340037482592e+01 1 0 0
969 0 1 0.0000000000000000e+00 8.5107283817112354e+00 9.2652851037066526e+00 2.1301394348638308e+01 1 1 0
347 0 1 0.0000000000000000e+00 1.5134300275437885e+01 1.2221512507899586e+01 1.9714311500372244e+01 0 0 0
521 0 1 0.0000000000000000e+00 3.7377417476234047e+00 1.7247602044110106e+01 1.2284657661377786e+01 1 0 0
304 0 1 0.0000000000000000e+00 1.0094916349816812e+01 1.3220274424284950e+01 1.2781675318856347e+01 0 0 0
840 0 1 0.0000000000000000e+00 1.9786040922529100e-01 1.2409132276127613e+01 1.3979396959894435e+01 1 0 0
387 0 1 0.0000000000000000e+00 1.2178978185456442e+01 5.6500462617090061e+00 1.7938210004597845e+01 0 1 0
417 0 1 0.0000000000000000e+00 6.0334529976878271e+00 5.5169002430599114e+00 1.6879300510592898e+01 0 1 0
1 0 1 0.0000000000000000e+00 9.9461262414045333e+00 1.7412537091386618e+01 1.3407690828014386e+01 0 0 0
498 0 1 0.0000000000000000e+00 2.6428273507906792e+00 1.6093504542865329e+01 1.8409794846508433e+01 1 0 0
68 0 1 0.0000000000000000e+00 8.8825386474834254e+00 1.1930688629991552e+01 1.8677337517252976e+01 0 0 0
992 0 1 0.0000000000000000e+00 5.5420074997874762e+00 2.8461961369882172e+00 1.9484294714281774e+01 0 1 0
612 0 1 0.0000000000000000e+00 1.3078721744332686e+01 1.5408621735154053e+01 1.3567488178483476e+01 1 0 0
340 0 1 0.0000000000000000e+00 8.8429109048998900e+00 1.6311540996273898e+01 1.9348889422225650e+01 0 0 0
544 0 1 0.0000000000000000e+00 2.9737022679036960e+00 3.3737036520783970e+00 1.5999165165668492e+01 0 0 0
725 0 1 0.0000000000000000e+00 4.8019605212552119e-01 3.8396662683184077e+00 1.2498961485933078e+01 1 0 1
159 0 1 0.0000000000000000e+00 1.5780707235841003e+01 1.0770246160202982e+01 1.6411627709353276e+01 0 0 0
146 0 1 0.0000000000000000e+00 2.0187719898583047e+00 1.3358521635318013e+01 2.0931576947956728e+01 0 0 0
494 0 1 0.0000000000000000e+00 2.2970053721354748e+00 4.8586932413633344e+00 1.9427744188678091e+01 1 0 0
462 0 1 0.0000000000000000e+00 6.6318772104392210e+00 3.9417656222353714e+00 1.3651677408897838e+01 0 1 0
983 0 1 0.0000000000000000e+00 9.1212808295332373e+00 7.7294272278672507e+00 1.7845202867853658e+01 1 1 0
327 0 1 0.0000000000000000e+00 1.4977666319684321e+01 1.6474099263561666e+01 2.0512456858490697e+01 0 0 0
99 0 1 0.0000000000000000e+00 1.4845239217370130e+01 5.2418962352187268e+00 2.1618541917935740e+01 0 0 0
393 0 1 0.0000000000000000e+00 1.6492705479819357e+01 4.8740235821038516e+00 1.2320044953758831e+01 0 0 0
218 0 1 0.0000000000000000e+00 6.5661902562744761e+00 8.2703014021418007e+00 1.4258424110915332e+01 0 0 0
445 0 1 0.0000000000000000e+00 1.0171483747035944e+01 9.0219102219271079e+00 1.1931111031899666e+01 0 1 1
675 0 1 0.0000000000000000e+00 1.5431100189771909e+01 3.7342404397513063e+00 1.8207161407438672e+01 0 0 0
791 0 1 0.0000000000000000e+00 2.8038498227575639e+00 7.6164391025588243e+00 1.6773790030787282e+01 0 0 0
459 0 1 0.0000000000000000e+00 6.2757732974934299e+00 1.6817146850777004e+01 1.5883150528843913e+01 0 0 0
210 0 1 0.0000000000000000e+00 1.7395064376427349e+00 6.2566476470581343e+00 2.2863131418536632e+01 0 0 0
979 0 1 0.0000000000000000e+00 9.7010824137069100e+00 6.2941917285648312e+00 1.4429827519192894e+01 0 0 1
797 0 1 0.0000000000000000e+00 2.2436337878182204e+00 8.9970195678946290e+00 2.0176000268894494e+01 1 0 0
244 0 1 0.0000000000000000e+00 5.1352652691996949e+00 1.5563929822434430e+01 2.1906587182375755e+01 0 0 0
389 0 1 0.0000000000000000e+00 9.8511838150581710e+00 1.9997838351781954e+00 1.3642087761934427e+01 0 1 0
402 0 1 0.0000000000000000e+00 1.1615272782017616e+01 7.2737046732535298e+00 2.1402848511242286e+01 0 0 0
589 0 1 0.0000000000000000e+00 1.2365738391018674e+01 1.6909241037135580e+01 1.7021497759988037e+01 1 -1 0
663 0 1 0.0000000000000000e+00 1.5250174296963777e+01 7.8695581480187862e+00 1.8917952752078683e+01 1 0 0
761 0 1 0.0000000000000000e+00 8.3172564723479141e+00 1.3562160757384342e+01 2.2021317309926129e+01 0 0 0
141 0 1 0.0000000000000000e+00 9.6093220809520421e+00 1.0521857878548696e+01 1.5290116223815422e+01 0 0 0
135 0 1 0.0000000000000000e+00 9.2451738639834264e+00 3.3796577965306684e+00 1.7028837316726527e+01 0 0 0
584 0 1 0.0000000000000000e+00 1.2495135788803951e+01 1.4697905065752848e+00 1.7269285618025023e+01 1 0 0
88 0 1 0.0000000000000000e+00 6.9130044698866833e+00 1.5270512464336857e+01 1.2535528699504439e+01 0 0 0
292 0 1 0.0000000000000000e+00 5.7501736469350595e+00 1.4104138178047135e+01 1.8537138863459216e+01 0 0 0
787 0 1 0.0000000000000000e+00 1.5606218847844463e+01 1.5020993406499729e+01 1.7123366657188189e+01 1 0 0
321 0 1 0.0000000000000000e+00 2.5207487487895555e+00 6.3516196022454086e-01 1.8687699749067800e+01 0 1 0
587 0 1 0.0000000000000000e+00 5.1178153431981981e+00 1.1247019089880196e+01 2.1055553080055954e+01 1 0 0
205 0 1 0.0000000000000000e+00 3.2627349445101892e+00 1.4620924177012663e+01 1.5016487163334871e+01 0 0 1
611 0 1 0.0000000000000000e+00 1.1555121358707618e+01 1.1437738932428188e+01 2.2243768688918305e+01 1 0 0
61 0 1 0.0000000000000000e+00 6.0981869457838256e+00 1.2691995014973965e+00 1.6248540428790655e+01 0 0 0
878 0 1 0.0000000000000000e+00 1.5877563014337303e+01 6.4498338347784090e+00 1.5614626102373354e+01 0 1 0
41 0 1 0.0000000000000000e+00 1.2746404096709540e+01 8.4884387012229823e+00 1.5564944642540958e+01 0 0 0
179 0 1 0.0000000000000000e+00 8.0188763102603353e+00 2.3016232739177287e+00 2.3107500089069184e+01 0 0 0
618 0 1 0.0000000000000000e+00 3.3634900367295808e+00 1.0334602647894904e+01 1.4157687362595244e+01 1 0 0
382 0 1 0.0000000000000000e+00 1.1806731598372378e+01 3.0198513822952573e+00 2.0649057593218327e+01 0 1 0
118 0 1 0.0000000000000000e+00 8.7929553486859326e+00 7.4803231932657155e-01 1.9680756386810611e+01 0 0 0
1018 0 1 0.0000000000000000e+00 5.9498544753619544e+00 9.7592457128423664e+00 1.7708119988074216e+01 1 0 0
751 0 1 0.0000000000000000e+00 9.4164173107830340e+00 1.4735573138169551e+01 1.6068292780579732e+01 1 0 0
325 0 1 0.0000000000000000e+00 1.6269605608865550e+01 1.3433631949891248e+01 1.3762795442217469e+01 0 0 0
1019 0 1 0.0000000000000000e+00 1.6453721174286052e+01 9.2381539510042678e+00 1.3038443018959924e+01 0 1 0
91 0 1 0.0000000000000000e+00 3.6116102002980592e+00 1.8421317839613971e+00 1.2713461545274248e+01 0 0 -1
105 0 1 0.0000000000000000e+00 1.4549773134836913e+01 1.3648180263507573e+01 2.3053573173237488e+01 0 0 0
691 0 1 0.0000000000000000e+00 1.2106860136270374e+01 9.9870752449188132e+00 1.8922542384755491e+01 1 0 0
684 0 1 0.0000000000000000e+00 1.1868394946775371e+01 1.4141642180257204e+01 1.9611721403765312e+01 1 0 0
851 0 1 0.0000000000000000e+00 2.7845342670920528e+00 1.1864168812008876e+01 1.7571898563834637e+01 1 1 0
575 0 1 0.0000000000000000e+00 1.2593915444660791e+01 1.2676248662656921e+01 1.6267676014965339e+01 1 0 0
230 0 1 0.0000000000000000e+00 1.1299267287344859e+01 2.8973077261352753e-01 2.3255324438851449e+01 0 0 0
697 0 1 0.0000000000000000e+00 5.4575985257857216e+00 6.9871091757285120e+00 2.0294596909665540e+01 1 0 0
216 0 1 0.0000000000000000e+00 1.4744122592487317e+01 9.3797630163398846e+00 2.2284919271612726e+01 0 0 0
538 0 1 0.0000000000000000e+00 3.5401637912901109e+00 6.0635579359798584e+00 1.3453797618248020e+01 1 0 0
696 0 1 0.0000000000000000e+00 2.7217939960807691e-01 8.0630924558573298e+00 1.3219001563883477e+01 1 0 1
1012 0 1 0.0000000000000000e+00 1.5028905235292948e+01 9.8135416356293848e-01 2.0877663640234228e+01 0 1 0
361 0 1 0.0000000000000000e+00 5.0604012238810538e+00 1.4096250357015655e-01 2.2247004922749944e+01 0 1 0
546 0 1 0.0000000000000000e+00 6.3609194104132891e-02 1.6607871297112371e+01 1.4588335510047830e+01 1 0 0
971 0 1 0.0000000000000000e+00 3.3181836886393978e-02 1.0704055194008077e+00 1.5025421616206010e+01 1 1 1
153 0 1 0.0000000000000000e+00 4.3428868835102152e+00 5.8587232678904479e+00 2.6291650613163394e+01 0 0 0
264 0 1 0.0000000000000000e+00 1.3310907266410936e+01 1.2483239497128837e+01 2.9201871227979858e+01 0 0 0
774 0 1 0.0000000000000000e+00 7.7248840363546707e+00 1.0815133326516627e+01 2.4610436711321185e+01 1 0 -1
335 0 1 0.0000000000000000e+00 6.7402546992510608e+00 1.3871082980841866e+01 3.1301052497491966e+01 1 0 0
957 0 1 0.0000000000000000e+00 6.9379276023571368e-01 9.3971175575929280e+00 2.9601236968030594e+01 1 0 0
617 0 1 0.0000000000000000e+00 1.6242038863441472e+01 3.5676830803655952e+00 3.1245187249813096e+01 1 0 0
539 0 1 0.0000000000000000e+00 6.3756009060181329e+00 6.9271192679999931e+00 3.3138641014804605e+01 0 0 -1
132 0 1 0.0000000000000000e+00 4.4318433024227497e+00 1.5475064012894582e+00 2.5595341655861017e+01 0 0 0
197 0 1 0.0000000000000000e+00 1.6024846920371985e+01 1.2055382714006452e+01 3.2652264162429809e+01 0 0 0
172 0 1 0.0000000000000000e+00 1.0436351592445623e+01 6.0218844881931650e+00 2.7377276642337893e+01 0 0 0
554 0 1 0.0000000000000000e+00 4.5515895429605507e-01 1.3763165999089194e+01 3.0305766866708673e+01 1 0 -1
457 0 1 0.0000000000000000e+00 2.8884444557588531e+00 1.3341750021591915e+01 3.3904831888755972e+01 0 0 0
466 0 1 0.0000000000000000e+00 3.8247558388622633e+00 3.0759749451057044e+00 2.8868719194692119e+01 0 1 0
798 0 1 0.0000000000000000e+00 4.7019837394796307e+00 8.5186349228184959e+00 2.3682504023743849e+01 0 0 0
501 0 1 0.0000000000000000e+00 1.4079785676956492e+01 6.8239163725800589e+00 2.4999049669383826e+01 0 0 -1
772 0 1 0.0000000000000000e+00 7.7372803605014990e+00 1.5080410370863291e+01 2.5411403111224391e+01 0 0 -1
408 0 1 0.0000000000000000e+00 4.5692418670690316e+00 1.7121650977724407e+01 2.5189968309776866e+01 0 0 0
556 0 1 0.0000000000000000e+00 9.8319776563122607e-01 1.2113048060069744e+01 2.6929206407615762e+01 1 0 0
116 0 1 0.0000000000000000e+00 1.2828030763559532e+01 1.3989610553266326e+01 3.2480573207424072e+01 0 0 -1
973 0 1 0.0000000000000000e+00 1.0677386653356276e+01 1.9403031580831696e+00 2.6612190132855027e+01 0 1 0
603 0 1 0.0000000000000000e+00 3.6385906872033793e+00 1.1731238824163528e+01 3.0511570942895649e+01 1 0 -1
886 0 1 0.0000000000000000e+00 7.1312052557502748e+00 1.2312660691084647e+01 2.7941342725665901e+01 1 1 0
708 0 1 0.0000000000000000e+00 1.0258373749670261e+01 1.4581764914438008e+01 2.8911195922520101e+01 1 0 0
1007 0 1 0.0000000000000000e+00 3.4740624313503838e+00 1.5946539610168850e+01 3.1197907962821400e+01 1 1 0
560 0 1 0.0000000000000000e+00 7.3559836654453123e+00 8.0392988380145880e+00 2.7265958335988490e+01 0 0 -1
745 0 1 0.0000000000000000e+00 6.9404027880414809e-01 7.9378284928612675e-01 2.8117464335863481e+01 0 1 0
354 0 1 0.0000000000000000e+00 1.6631294500876763e+01 1.0453753370066181e+01 2.9288392678474438e+01 0 0 0
506 0 1 0.0000000000000000e+00 3.1251512049952868e+00 8.8936178586353716e+00 3.3071651962741029e+01 1 0 0
507 0 1 0.0000000000000000e+00 6.3717226856726530e+00 2.4824150870949415e+00 3.2449358709122841e+01 1 0 0
183 0 1 0.0000000000000000e+00 7.3743419386528481e+00 3.8451605125013626e+00 2.6403971667472568e+01 0 0 0
240 0 1 0.0000000000000000e+00 6.9479196615660870e+00 5.3086347064802375e+00 2.9808394267584724e+01 0 0 0
199 0 1 0.0000000000000000e+00 9.7838429010195167e+00 1.1801197913829304e+01 3.1540627405109916e+01 0 0 0
241 0 1 0.0000000000000000e+00 3.9888259437343341e+00 1.4346273709545473e+01 2.7763029803255282e+01 0 0 0
344 0 1 0.0000000000000000e+00 3.2969253963985730e+00 4.7080537837791629e+00 3.2228160722357053e+01 0 0 0
372 0 1 0.0000000000000000e+00 2.8322449731187644e+00 1.7385964995806063e+01 3.4513376367632958e+01 0 1 0
189 0 1 0.0000000000000000e+00 9.3817612202736367e+00 4.7794165784440708e+00 3.3395527495032240e+01 0 0 0
1009 0 1 0.0000000000000000e+00 4.2599125169983836e+00 1.0052175527133608e+01 2.7103810824589914e+01 1 0 0
656 0 1 0.0000000000000000e+00 1.0776009058528206e+01 1.2979265972617638e+01 2.5549116513510668e+01 1 0 0
138 0 1 0.0000000000000000e+00 1.0875028572298334e+01 8.7484582212864161e+00 2.4950723463729535e+01 0 0 0
180 0 1 0.0000000000000000e+00 6.0740946617997702e+00 1.1141294777252037e+01 3.3905386234155884e+01 0 0 0
441 0 1 0.0000000000000000e+00 1.5170444072619202e+00 1.4841573199941546e+01 2.4314030450271787e+01 0 0 0
160 0 1 0.0000000000000000e+00 1.3537681751526963e+01 8.2234342048197000e+00 2.8335308767230671e+01 0 0 -1
477 0 1 0.0000000000000000e+00 1.2369745332227093e+00 3.5104027806398053e+00 2.5586475700302458e+01 0 1 0
861 0 1 0.0000000000000000e+00 1.0354093637688605e+01 1.0301741486327613e+01 2.8290249896102981e+01 0 0 -1
836 0 1 0.0000000000000000e+00 3.8747474529407859e+00 7.3707830226272959e+00 2.9722105533753240e+01 0 1 -1
4 0 1 0.0000000000000000e+00 1.5761910435733835e+01 8.6194866712935492e-01 3.3749075514130780e+01 0 0 -1
10 0 1 0.0000000000000000e+00 9.9680635228758856e+00 3.3980821339661706e+00 3.0041599496235399e+01 0 0 -1
581 0 1 0.0000000000000000e+00 6.0720001514376518e+00 1.5402154108102778e+01 3.4727391994893942e+01 1 0 0
692 0 1 0.0000000000000000e+00 1.3034750268841179e+01 5.6396919701087693e+00 3.0972363817719458e+01 1 0 0
206 0 1 0.0000000000000000e+00 1.3238979269539600e+01 1.6758317946027873e+01 2.9817408832915817e+01 0 0 0
111 0 1 0.0000000000000000e+00 1.6176500317897638e+01 7.7035274267175415e+00 3.1955414393271283e+01 0 0 0
303 0 1 0.0000000000000000e+00 3.1554445026486917e+00 2.6016617306003509e-01 3.1500401268621864e+01 0 1 -1
144 0 1 0.0000000000000000e+00 9.6537076930235877e+00 5.8843095938497303e-01 3.2681379787577384e+01 0 0 0
809 0 1 0.0000000000000000e+00 1.2618080112857696e+01 2.8320621790670244e+00 3.3617149781289470e+01 0 1 -1
666 0 1 0.0000000000000000e+00 1.6702999584143583e+01 6.2031416180667005e+00 2.8516259700185390e+01 0 1 0
326 0 1 0.0000000000000000e+00 1.5842946280435912e+01 1.6247472858599703e+01 3.3497918943621151e+01 0 1 -1
750 0 1 0.0000000000000000e+00 7.1083672362507615e+00 1.6524627153622468e+01 2.8833733517228289e+01 1 0 0
732 0 1 0.0000000000000000e+00 6.7708476581812800e+00 9.6690230724596784e+00 3.0539702236452314e+01 1 0 0
320 0 1 0.0000000000000000e+00 1.1504610357853593e+00 7.8908193084141320e+00 2.6085864994050294e+01 1 1 -1
686 0 1 0.0000000000000000e+00 9.0892680163103705e+00 1.3415661455291335e+01 3.4884065589149444e+01 0 0 0
819 0 1 0.0000000000000000e+00 9.8824281375340739e+00 7.6363841023652501e+00 3.0752304948477892e+01 1 0 -1
406 0 1 0.0000000000000000e+00 1.6863942237723286e+01 2.0458019918902326e+00 2.7849055242655901e+01 0 1 -1
490 0 1 0.0000000000000000e+00 1.3219138767986511e+01 1.3169395695084105e+00 3.0210287775414123e+01 0 1 0
56 0 1 0.0000000000000000e+00 9.2819118462351451e+00 9.2072508487202285e+00 3.4209476953056360e+01 0 0 -1
222 0 1 0.0000000000000000e+00 1.5595911390210556e+01 5.0668535704766056e+00 3.4594873703944778e+01 0 0 0
540 0 1 0.0000000000000000e+00 1.7044276310727703e+01 1.3261700375920826e+01 2.6717054419700936e+01 0 0 0
178 0 1 0.0000000000000000e+00 1.4302161314824845e+01 2.5829643092117545e+00 2.4291794825216815e+01 0 0 0
917 0 1 0.0000000000000000e+00 2.7235772006175543e+00 1.8911187320460863e+00 3.4918941805910876e+01 1 0 0
128 0 1 0.0000000000000000e+00 1.2334953710219253e+01 7.0942229556202347e+00 3.4340931669095056e+01 0 0 0
427 0 1 0.0000000000000000e+00 1.4025568665164018e+01 1.1018165089249065e+01 2.5806521126261256e+01 0 1 0
79 0 1 0.0000000000000000e+00 7.0335992544673172e+00 1.1209168196174073e+00 2.9082483194389777e+01 0 1 -1
416 0 1 0.0000000000000000e+00 9.6874441291785871e+00 1.6059305948337254e+01 3.2310435672171948e+01 0 0 0
779 0 1 0.0000000000000000e+00 1.2999197822020632e+01 9.7535566289476563e+00 3.1755780059833196e+01 0 1 -1
167 0 1 0.0000000000000000e+00 1.6352170886637065e+01 1.4748794197792026e+01 2.9953862644584031e+01 0 -1 0
226 0 1 0.0000000000000000e+00 1.0809035915971844e+01 1.7302785581240705e+01 2.6352377099196762e+01 0 0 0
64 0 1 0.0000000000000000e+00 4.6799500472488402e+00 1.2845137691923936e+01 2.4456451489357267e+01 0 0 0
699 0 1 0.0000000000000000e+00 8.4154130523794957e-01 1.6475089970801246e+01 2.7573472004403442e+01 0 0 0
984 0 1 0.0000000000000000e+00 1.7329382927196548e+01 4.7074324973945236e+00 2.5240172520391074e+01 0 1 0
362 0 1 0.0000000000000000e+00 1.3635116367595563e+01 4.0432255081942623e+00 2.7608045807462926e+01 0 1 0
345 0 1 0.0000000000000000e+00 1.1159379214074907e+01 4.5481009260443299e+00 2.3950726425923783e+01 0 1 -1
987 0 1 0.0000000000000000e+00 1.3842897746176995e+01 1.5198028046971189e+01 2.6457518035748432e+01 1 0 0
136 0 1 0.0000000000000000e+00 1.7246707520479102e+01 8.9036840094775958e+00 2.6035243819992363e+01 0 0 0
669 0 1 0.0000000000000000e+00 6.4030947719519582e-01 5.2428613098684371e+00 2.8784393494044217e+01 1 0 0
86 0 1 0.0000000000000000e+00 7.9052661381480371e+00 6.5840413677871643e+00 2.3847745206482109e+01 0 0 0
384 0 1 0.0000000000000000e+00 1.6875368447406693e+01 1.7516057075347621e+01 2.7448177913495574e+01 0 0 0
58 0 1 0.0000000000000000e+00 1.2282960942763571e+01 1.1356624153927889e+01 3.5095784141544883e+01 0 0 -1
38 0 1 0.0000000000000000e+00 8.3940283372591337e-02 6.6899022305492677e+00 3.2264459677987517e+01 0 -1 -1
208 0 1 0.0000000000000000e+00 9.7474434076397387e-02 2.6819823208065809e+00 3.1379656422431719e+01 0 0 0
526 0 1 0.0000000000000000e+00 1.7532121191353955e+01 1.5812372031236579e+01 2.4049666572304147e+01 0 0 0
1017 0 1 0.0000000000000000e+00 1.7487228509139992e+01 4.9426231696598799e-01 2.4449330777340098e+01 0 1 0
419 0 1 0.0000000000000000e+00 7.8405537538832712e-02 1.1034376640944370e+01 3.2918595525398104e+01 0 0 -1
614 0 1 0.0000000000000000e+00 1.6572952020792051e+00 1.0589825197970105e+01 2.3561805279879838e+01 1 0 0
63 0 1 0.0000000000000000e+00 1.4720521980487536e+01 3.4843937702171807e+01 4.6443276182347661e+00 -1 -1 0
566 0 1 0.0000000000000000e+00 1.7273022926525655e+01 3.4304899838585882e+01 8.1306315428211278e+00 0 -1 0
483 0 1 0.0000000000000000e+00 1.0853694452679715e+01 2.2817214548644529e+01 8.1681352905202811e+00 0 0 1
858 0 1 0.0000000000000000e+00 5.9237968960751255e+00 1.9615813558486682e+01 3.0626948770082429e-01 0 0 0
273 0 1 0.0000000000000000e+00 1.4481821737044003e+01 2.7781557427462985e+01 6.4945889755565114e+00 0 0 0
257 0 1 0.0000000000000000e+00 1.1978334286471505e+01 2.4160077609052088e+01 2.1220666923188953e+00 0 0 0
57 0 1 0.0000000000000000e+00 7.3379888094444743e+00 1.7919727123625350e+01 9.8116816566579317e+00 0 0 0
373 0 1 0.0000000000000000e+00 1.5087118013624927e+01 2.2096363293278738e+01 2.2903236239425087e+00 0 0 0
571 0 1 0.0000000000000000e+00 2.1481888418238104e+00 2.3239435617527672e+01 3.4872118777365593e+00 1 0 0
248 0 1 0.0000000000000000e+00 4.3953636795980913e+00 3.1195729906536222e+01 8.5915720993982578e+00 0 0 0
348 0 1 0.0000000000000000e+00 1.2256464284323458e+00 3.3242517027671525e+01 8.3314565773284315e+00 0 0 0
177 0 1 0.0000000000000000e+00 8.9689246151708417e+00 2.1809826111626187e+01 1.2546852387047582e+00 0 -1 1
127 0 1 0.0000000000000000e+00 1.3582116490626724e+01 1.8148840590747266e+01 1.0921141192037455e+01 0 0 0
188 0 1 0.0000000000000000e+00 1.5482170225435408e+00 2.4800437481499802e+01 6.9682162170182442e+00 0 0 1
100 0 1 0.0000000000000000e+00 1.7500717982282385e+01 3.0102587506878031e+01 7.3360837002771735e+00 0 -1 0
282 0 1 0.0000000000000000e+00 5.9211380061736838e+00 2.3913719289025369e+01 1.0105257793273450e+00 0 0 0
649 0 1 0.0000000000000000e+00 1.3875967378443530e+01 2.5006849277264770e+01 9.1145350332518689e+00 0 -1 0
266 0 1 0.0000000000000000e+00 1.9850788024441088e+00 2.7443852528463392e+01 4.2108940336260101e+00 0 0 0
190 0 1 0.0000000000000000e+00 1.5327245582672322e+01 1.7687526670759958e+01 1.6623167263059857e+00 0 0 1
921 0 1 0.0000000000000000e+00 1.1507121200229138e+01 2.1317198625155651e+01 4.7839918060129314e+00 0 0 0
286 0 1 0.0000000000000000e+00 1.1694462076593917e+01 3.2614168727601978e+01 3.6910307047643318e+00 0 0 0