LAMMPS data file via write_data, version 3 Mar 2020, timestep = 25000000

1024 atoms
1 atom types

0.0000000000000000e+00 3.5200000000000003e+01 xlo xhi
0.0000000000000000e+00 3.5200000000000003e+01 ylo yhi
0.0000000000000000e+00 3.5200000000000003e+01 zlo zhi
0.0000000000000000e+00 0.0000000000000000e+00 0.0000000000000000e+00 xy xz yz

Masses

1 22.9898

Atoms # full

41 0 1 0.0000000000000000e+00 1.3696555215019746e+01 2.1178333081417198e+00 9.5043882467917165e+00 -2 -3 0
85 0 1 0.0000000000000000e+00 8.3619404175684924e+00 1.1003878725853001e+01 8.5067955488656608e+00 -1 -1 8
257 0 1 0.0000000000000000e+00 1.6467647008816510e+01 2.1456460022761075e+00 7.4458724591987115e+00 3 -6 3
873 0 1 0.0000000000000000e+00 9.0662514677793045e+00 1.3541235267015889e+01 1.5394206255614654e-01 -5 0 0
318 0 1 0.0000000000000000e+00 1.6036579644591839e+01 1.2028695603622813e+01 8.2022572663615296e+00 3 0 -5
568 0 1 0.0000000000000000e+00 1.2355323951298649e+00 1.5533728520341713e+01 9.5033561941403697e+00 1 -4 -3
484 0 1 0.0000000000000000e+00 4.2602114216632296e+00 1.2441023365324757e+01 7.5032220168065358e+00 4 -3 6
856 0 1 0.0000000000000000e+00 1.5187937775139943e+01 9.3911226999886264e+00 1.1405354768568824e+01 0 1 -3
642 0 1 0.0000000000000000e+00 7.5238709054755493e+00 4.2960835902431551e+00 8.6993698749494701e+00 2 4 5
938 0 1 0.0000000000000000e+00 3.2701620348091951e+00 8.8927139909685984e+00 7.6672392831476417e+00 1 -1 -3
449 0 1 0.0000000000000000e+00 6.9083500685435606e+00 1.4733414338642167e+01 3.6766489487492344e+00 2 -4 8
885 0 1 0.0000000000000000e+00 1.5415191229319026e+01 1.6473579706603655e+01 4.8990573380892410e+00 5 9 4
227 0 1 0.0000000000000000e+00 1.5435524285875781e+01 4.4534600466887637e+00 5.4349438615362597e+00 0 -6 -1
982 0 1 0.0000000000000000e+00 1.5598790247074505e+00 7.5758973091857662e+00 1.0968818268601289e+01 1 -5 9
543 0 1 0.0000000000000000e+00 2.3827739803564820e+00 1.8934012138449488e-01 1.1428791568282014e+01 5 1 2
584 0 1 0.0000000000000000e+00 7.6706961016681774e+00 6.6476459076664918e-01 1.5605461930630440e+00 0 -4 4
964 0 1 0.0000000000000000e+00 1.1765473517217462e+01 4.7075404158759193e+00 6.3116111478139008e+00 4 6 7
595 0 1 0.0000000000000000e+00 1.6079260026008637e+01 1.5816869578132218e+01 7.9862378135783709e+00 3 -8 0
326 0 1 0.0000000000000000e+00 7.0869533265467399e-01 1.8145066203073932e+00 8.8605089992576787e+00 -3 -2 3
559 0 1 0.0000000000000000e+00 1.0439745650189550e+01 1.4078534122667461e+00 4.1775777852472569e+00 3 1 0
164 0 1 0.0000000000000000e+00 1.6413103117248699e+01 1.7343931538837268e+01 1.0074874411026578e+00 2 -1 4
224 0 1 0.0000000000000000e+00 3.7299306436578816e+00 1.5842169583057304e+01 6.1644014053758349e+00 -5 -5 1
969 0 1 0.0000000000000000e+00 1.4301017020144938e+01 5.3350986008043826e+00 8.7697628024248644e+00 -6 -1 1
310 0 1 0.0000000000000000e+00 1.1864725192190370e+01 1.0519832367685696e+01 4.2858188249507707e+00 -3 0 -1
469 0 1 0.0000000000000000e+00 6.0190894806663442e-01 8.2227938111831644e+00 3.9416398751044541e+00 3 0 6
280 0 1 0.0000000000000000e+00 2.2776209643122161e+00 5.3520990517266620e+00 2.5224077400141054e+00 -5 9 -3
747 0 1 0.0000000000000000e+00 1.2861168976256909e+01 1.4745104114477428e+01 6.2258953840182194e+00 5 -4 2
682 0 1 0.0000000000000000e+00 5.3740029430437071e+00 1.0008570039521963e+01 1.0592427700406700e+01 -6 -7 -2
238 0 1 0.0000000000000000e+00 1.2518818416080148e+01 8.3848739467050120e+00 9.4368044329847276e+00 2 -3 2
872 0 1 0.0000000000000000e+00 4.3239450095338121e+00 5.7597583460051469e+00 5.6165900975808789e+00 -1 2 0
133 0 1 0.0000000000000000e+00 1.1379788921382850e+01 1.5644020009603034e+01 3.4289899108908752e+00 1 -3 -8
287 0 1 0.0000000000000000e+00 1.1967826369094217e+01 1.2517221199241977e+01 1.7179221327140874e+00 -1 -1 1
54 0 1 0.0000000000000000e+00 1.0385908918776485e+01 1.5088919580674467e+01 8.4621047000767398e+00 5 1 1
699 0 1 0.0000000000000000e+00 6.5908397514345829e+00 7.4093947591642406e+00 2.8424176396898249e+00 1 0 -1
577 0 1 0.0000000000000000e+00 7.4760893255545078e+00 4.5615596023593383e+00 5.7182281469101053e+00 1 -3 -5
1015 0 1 0.0000000000000000e+00 9.1813403290102062e+00 3.7158794946281066e+00 1.8368924918778864e+00 -2 3 1
209 0 1 0.0000000000000000e+00 9.7364680349261672e+00 1.3109182208837998e+01 4.6478994963093685e+00 -4 -7 -1
560 0 1 0.0000000000000000e+00 9.7945436004222888e+00 8.5720494705027139e+00 7.1803704976333211e+00 -1 -1 -2
73 0 1 0.0000000000000000e+00 1.4424119831652154e+01 6.4915953207022712e+00 3.3846781851882990e+00 0 2 -1
168 0 1 0.0000000000000000e+00 1.9166165328204103e+00 1.4339829813065534e+00 2.2219512584502779e+00 4 4 -1
556 0 1 0.0000000000000000e+00 6.8973976339599596e-01 1.0676956144752900e+01 9.7081070883264999e+00 1 -4 5
563 0 1 0.0000000000000000e+00 1.4873733539003334e+01 9.8702314860100948e+00 1.8349818766972819e+00 -5 -1 -2
309 0 1 0.0000000000000000e+00 1.6662140078102961e+01 4.2743838118673043e+00 1.1144600453005326e+01 -1 3 1
464 0 1 0.0000000000000000e+00 5.5420428807404178e+00 1.3587409995019165e+01 5.0706676123734817e-01 2 5 5
713 0 1 0.0000000000000000e+00 1.2177383256928575e+01 1.1635538097179779e+01 7.5588230424327305e+00 0 0 -2
530 0 1 0.0000000000000000e+00 1.0110533001390267e+00 1.1456454377871674e+01 6.5439979035877895e+00 2 2 -6
75 0 1 0.0000000000000000e+00 5.2485563276046010e-01 1.4480606213590198e+01 5.3433480569501981e+00 0 4 2
395 0 1 0.0000000000000000e+00 2.2217407041555073e+00 1.6450917210433765e+01 2.5138489870617615e+00 0 4 6
153 0 1 0.0000000000000000e+00 7.8385489190451727e+00 3.4495918363573269e-01 9.7298179810107257e+00 -6 0 4
504 0 1 0.0000000000000000e+00 8.9838244099189613e+00 1.7158689271322810e+01 1.2948336583547504e+00 0 -5 -8
923 0 1 0.0000000000000000e+00 9.0326017609931188e+00 1.0302016194545059e+01 2.1204213720611480e+00 -4 7 3
282 0 1 0.0000000000000000e+00 1.1565562563404885e+01 7.0840235221695043e+00 2.8243318842309645e-01 -2 4 -3
105 0 1 0.0000000000000000e+00 8.3456392909303911e+00 8.6925188764273109e+00 1.1303292908691404e+01 -6 2 7
988 0 1 0.0000000000000000e+00 8.9554083274994021e+00 1.6985384989689830e+01 6.2835607041090098e+00 8 2 -5
172 0 1 0.0000000000000000e+00 1.4753906695592784e+01 8.2502823466720692e+00 5.8931610247690402e+00 -3 -1 -7
285 0 1 0.0000000000000000e+00 1.7106068775325049e+01 1.5087168426961723e+01 1.1617328207205475e+01 7 1 -6
2 0 1 0.0000000000000000e+00 1.3145126591219764e+01 1.3381462359178981e+01 1.0345714758039197e+01 4 0 4
118 0 1 0.0000000000000000e+00 6.6849147503657971e+00 1.1454329924730242e+01 4.6130471535291324e+00 3 2 3
407 0 1 0.0000000000000000e+00 1.0509549440443653e+01 5.3794396806096918e+00 1.0089756556616948e+01 -1 7 -2
101 0 1 0.0000000000000000e+00 1.0355943782860935e+01 1.1821651990065021e+01 1.1424927756176464e+01 -4 1 3
292 0 1 0.0000000000000000e+00 1.2564720150680701e+01 3.5327760868091556e+00 1.9411922128927186e+00 8 6 -1
984 0 1 0.0000000000000000e+00 1.6071517410088578e+01 4.1654627100043653e+00 1.8141109704031952e+00 4 3 -2
237 0 1 0.0000000000000000e+00 1.4767941631852686e+01 1.4720438769509288e+01 8.5089397194124572e-01 5 -3 6
150 0 1 0.0000000000000000e+00 5.3741740398015168e+00 3.9046915971771465e+00 2.6357089577532808e+00 -2 0 -2
601 0 1 0.0000000000000000e+00 4.3035379063166017e+00 1.5756184832971565e+00 5.7524328951824488e+00 8 0 -5
371 0 1 0.0000000000000000e+00 1.4803235099972555e+01 1.2298962185801667e+01 4.4166806825280682e+00 -6 -1 1
574 0 1 0.0000000000000000e+00 7.2185714935401597e+00 1.5078754161150918e+01 7.7711667631038344e+00 4 -4 4
69 0 1 0.0000000000000000e+00 5.3687105072149430e+00 1.4518583827981114e+01 1.0671924249013442e+01 1 -2 -2
723 0 1 0.0000000000000000e+00 6.4042673041056357e+00 8.8410337207698433e+00 6.8356987789951509e+00 3 2 0
1001 0 1 0.0000000000000000e+00 7.2150107192946393e+00 1.1170211124688860e+00 5.4308759409648388e+00 2 -2 -2
652 0 1 0.0000000000000000e+00 3.3823813681341846e+00 1.2950622618864585e+01 3.1568685395830443e+00 5 2 1
299 0 1 0.0000000000000000e+00 1.0782407312353849e+01 6.4163558961890832e+00 3.4801093841070272e+00 2 -2 0
225 0 1 0.0000000000000000e+00 1.3252217682001021e+01 1.3427077151876876e+00 5.3446253916866437e+00 0 0 -6
810 0 1 0.0000000000000000e+00 9.8417335357079361e-01 4.8291779140240552e+00 5.9421310720125078e+00 -8 4 3
669 0 1 0.0000000000000000e+00 3.5959514420759935e+00 5.4483620352228037e+00 8.9509626444920567e+00 3 -9 3
813 0 1 0.0000000000000000e+00 4.2055239729667528e+00 2.1944747195283005e+00 8.9953128688303750e+00 0 1 -5
445 0 1 0.0000000000000000e+00 5.7268112064289882e+00 6.7153995702716527e+00 1.1215665941547430e+01 -1 -1 0
854 0 1 0.0000000000000000e+00 3.8613939114798534e+00 9.7318057147611334e+00 3.1113867053879849e+00 3 1 -3
898 0 1 0.0000000000000000e+00 1.0820620727550438e+01 1.6425790050580764e+00 8.2429543119215314e+00 -3 5 -3
905 0 1 0.0000000000000000e+00 1.7504250614841990e+01 1.1080094469985693e+00 3.8258420100684560e+00 0 5 -3
405 0 1 0.0000000000000000e+00 1.4490091267427974e+01 1.4088340172905875e-01 2.1658455358919233e+00 -2 -2 1
373 0 1 0.0000000000000000e+00 8.4790725550670825e+00 5.3205964795761522e+00 1.3308681885297755e+01 0 2 4
205 0 1 0.0000000000000000e+00 1.3081224492205408e+01 1.2377949205843752e+01 1.7939596008376608e+01 5 -4 13
662 0 1 0.0000000000000000e+00 9.0390486600143340e+00 4.7531299117388457e+00 1.6956398097605309e+01 -1 1 -3
528 0 1 0.0000000000000000e+00 6.1487944392487011e+00 1.6603727595759942e+01 1.7526700212234690e+01 7 1 -2
232 0 1 0.0000000000000000e+00 1.5159377929205082e+01 4.0665016349461638e+00 1.4492759699710753e+01 -2 4 -7
443 0 1 0.0000000000000000e+00 8.8869399828037920e+00 1.3086416679776802e+01 1.5123453941495855e+01 0 1 6
658 0 1 0.0000000000000000e+00 7.3950661752440503e+00 1.7160260281580889e+01 2.1501303905617537e+01 -11 1 5
861 0 1 0.0000000000000000e+00 1.2251541143046849e+00 1.4848447580118101e+01 2.2724382462342369e+01 1 1 -4
795 0 1 0.0000000000000000e+00 4.3883803616494360e-01 1.0570181242894131e+01 1.6427325896039502e+01 -1 6 -7
516 0 1 0.0000000000000000e+00 8.8414935338363296e+00 1.4897044655486422e+01 1.1887662218321630e+01 5 0 -2
903 0 1 0.0000000000000000e+00 1.3856671403017323e+01 8.6377527280373947e+00 2.0160814282008626e+01 -1 -1 -1
581 0 1 0.0000000000000000e+00 1.3401972571100922e+01 1.1979107046945925e+01 2.1534298664080698e+01 2 -3 0
497 0 1 0.0000000000000000e+00 3.5136384837300461e+00 1.2017936852224052e+01 2.1669228350244559e+01 -2 -4 2
330 0 1 0.0000000000000000e+00 9.4422503431002482e+00 1.4752826067430194e+01 2.2921735795421672e+01 -1 -2 0
356 0 1 0.0000000000000000e+00 6.3923145763357614e-01 1.5497553030177908e+01 1.5947611479653194e+01 -6 -7 1
495 0 1 0.0000000000000000e+00 1.3795118140280035e+01 2.5369357241435169e+00 1.9531616572487096e+01 5 -2 -5
557 0 1 0.0000000000000000e+00 1.4919925612173559e+00 5.8881413882086866e+00 1.5497721790061938e+01 -2 -1 4
541 0 1 0.0000000000000000e+00 1.7602485275998994e+00 9.2856208718244257e+00 1.9230868335622048e+01 -1 0 -4
717 0 1 0.0000000000000000e+00 1.6163919167094683e+01 5.8975405536477137e+00 1.8092335368570232e+01 3 0 -4
817 0 1 0.0000000000000000e+00 1.6661431915692898e+01 2.9085647932923937e+00 1.7366031909889131e+01 -6 0 -4
704 0 1 0.0000000000000000e+00 2.6348602136362664e-01 3.3935533979521924e+00 2.3150351136606591e+01 -1 -5 -3
654 0 1 0.0000000000000000e+00 6.2952588777736445e+00 6.9532706031894751e+00 2.2656503913920574e+01 2 1 2
234 0 1 0.0000000000000000e+00 9.0557876009327405e+00 1.4618483532179489e+01 1.8208891252095782e+01 -2 1 4
94 0 1 0.0000000000000000e+00 1.5904783779051483e+01 5.4839032360966575e+00 2.2053304922615574e+01 -5 -5 1
111 0 1 0.0000000000000000e+00 7.6444951840645459e+00 2.1914612862927534e+00 1.2113883019665410e+01 -2 -3 -1
297 0 1 0.0000000000000000e+00 4.5720936466109698e+00 1.5345613845434514e+01 2.0500579732878329e+01 0 -7 -9
364 0 1 0.0000000000000000e+00 5.5116809435643956e+00 4.3773582320477269e+00 1.5118076226550993e+01 0 0 1
334 0 1 0.0000000000000000e+00 1.4262490058574876e+01 9.5867018915966340e-01 1.2632397589219728e+01 -1 2 5
839 0 1 0.0000000000000000e+00 1.7140889267045356e+01 3.1518811236122246e-01 1.9153393507788341e+01 1 -2 2
853 0 1 0.0000000000000000e+00 3.1567259145950963e+00 1.3059787489678179e+01 1.5164240052101295e+01 0 -3 -2
291 0 1 0.0000000000000000e+00 8.2232394492788075e+00 1.3874450146862489e+00 1.6328438365288243e+01 0 -1 -1
925 0 1 0.0000000000000000e+00 1.6001714388069497e+00 9.1554678371011047e+00 1.3788862807530784e+01 2 3 3
746 0 1 0.0000000000000000e+00 3.0198669965657201e+00 1.1720447206201253e+01 1.2366563328558854e+01 3 4 2
63 0 1 0.0000000000000000e+00 6.9961183838765413e+00 1.2901881520048271e+01 2.0850109962726822e+01 -4 -9 -1
868 0 1 0.0000000000000000e+00 6.1029179800495248e+00 1.7186300204096007e+01 1.2450671937656571e+01 1 2 -9
62 0 1 0.0000000000000000e+00 1.0465231330503405e+01 2.2373788900531513e+00 2.0812398674114061e+01 0 -2 4
781 0 1 0.0000000000000000e+00 1.1755581697990081e+01 8.6348690873986467e+00 1.3071191255329889e+01 6 1 7
513 0 1 0.0000000000000000e+00 9.0996625319396003e+00 6.5527412019588871e+00 2.0465948299515048e+01 2 4 7
798 0 1 0.0000000000000000e+00 1.2524019945486790e+01 6.5226931433283806e+00 1.5693526587869496e+01 2 -1 1
554 0 1 0.0000000000000000e+00 8.7299391966307578e+00 8.5651501752647814e+00 1.4796746689148060e+01 7 2 -3
841 0 1 0.0000000000000000e+00 3.8347958448340935e+00 9.6694290803679923e+00 1.6573862633362019e+01 6 -4 -2
766 0 1 0.0000000000000000e+00 1.2413977149190332e+01 1.6086180455559031e+01 1.9411459147957448e+01 1 3 -4
383 0 1 0.0000000000000000e+00 6.1261407619863393e+00 1.4977792941298308e+01 1.4803184324394561e+01 0 4 -1
860 0 1 0.0000000000000000e+00 5.0649324399248874e+00 8.6254182040259586e-01 1.2949466585160046e+01 -2 -2 1
974 0 1 0.0000000000000000e+00 1.6926105366939392e+01 8.1709268926672962e+00 1.3893595141868786e+01 6 0 5
367 0 1 0.0000000000000000e+00 7.0957201852936436e+00 3.5487343262570188e+00 2.0849591011784920e+01 1 -1 1
596 0 1 0.0000000000000000e+00 1.2011260388195472e+01 5.8054817716015172e+00 2.2996766915455289e+01 -2 2 1
890 0 1 0.0000000000000000e+00 1.6143351392727570e+01 1.5708085663097496e+01 1.7619923653559667e+01 1 -1 8
902 0 1 0.0000000000000000e+00 1.2716066399685548e+01 1.1882007352155654e+01 1.4296060838141313e+01 4 -5 6
987 0 1 0.0000000000000000e+00 6.9332900200544856e+00 7.2486869901491815e+00 1.7205152889055174e+01 -1 6 -5
388 0 1 0.0000000000000000e+00 4.4645492585546981e-01 1.1281988667652660e+01 2.1381890739533809e+01 -2 -2 -4
59 0 1 0.0000000000000000e+00 3.3077020639173655e+00 8.5936792877867383e+00 2.2696402436282799e+01 1 0 0
191 0 1 0.0000000000000000e+00 1.1110305956475459e+01 7.0261276164364561e-01 1.7851831578729634e+01 -3 -2 3
35 0 1 0.0000000000000000e+00 1.2037023382906742e+00 5.7206023405820856e+00 2.0169843553504919e+01 4 -5 4
521 0 1 0.0000000000000000e+00 1.2749985575712932e+01 2.7907501214709187e+00 1.6496804676480021e+01 2 4 -2
146 0 1 0.0000000000000000e+00 5.5664010818368945e+00 2.1863279782700529e+00 1.7989770328658487e+01 0 2 1
426 0 1 0.0000000000000000e+00 1.0599288391328569e+01 1.6297322083220781e+01 1.5258132970459092e+01 13 -6 3
660 0 1 0.0000000000000000e+00 1.0333373688382503e+01 1.1753323468906283e+01 1.9799635670125504e+01 2 4 2
93 0 1 0.0000000000000000e+00 2.5059664511448130e+00 1.5749897702201110e+01 1.2824636791081140e+01 -1 -3 0
427 0 1 0.0000000000000000e+00 4.2205856551133056e+00 2.1380301871211347e+00 2.3098207173518428e+01 1 -2 -7
956 0 1 0.0000000000000000e+00 4.9109412607396976e+00 1.2714006489624861e+01 1.8238177448520581e+01 4 -1 4
274 0 1 0.0000000000000000e+00 1.2617303798415419e+01 5.1669497992091600e+00 1.8970273775647527e+01 2 2 -9
655 0 1 0.0000000000000000e+00 4.1684917001973663e+00 3.9614711705571164e+00 1.2201773621859777e+01 -3 -3 -10
486 0 1 0.0000000000000000e+00 1.2960163257345146e+01 1.5692369087665591e+01 1.2937225141745738e+01 0 -6 3
827 0 1 0.0000000000000000e+00 1.5969447598693860e+00 1.4086650485327111e+01 1.8719624747732599e+01 2 -1 -2
30 0 1 0.0000000000000000e+00 7.0377160170880693e+00 1.1772076929318628e+01 1.3115157278261590e+01 -6 0 0
91 0 1 0.0000000000000000e+00 1.1104414588469895e+01 3.0782315126831050e+00 1.2988234912483325e+01 -5 2 -3
440 0 1 0.0000000000000000e+00 5.0791721859203376e+00 9.0369131533535132e+00 1.9485695981227714e+01 8 2 -5
219 0 1 0.0000000000000000e+00 1.1368018737368306e+01 8.5904784592075139e+00 1.7924981899471991e+01 -4 -1 -3
656 0 1 0.0000000000000000e+00 1.7340353206393946e+01 1.1698429770996070e+01 1.3781238680072869e+01 -5 15 2
721 0 1 0.0000000000000000e+00 1.0378424207410273e+01 8.9038663793114790e+00 2.1831288571657801e+01 -3 2 -2
165 0 1 0.0000000000000000e+00 1.4917511946123447e+01 1.4145848483334587e+01 1.4718093196793268e+01 -8 -1 2
270 0 1 0.0000000000000000e+00 7.5849842320690994e+00 1.0900459165661553e+01 1.8537624564870189e+01 3 -5 5
77 0 1 0.0000000000000000e+00 7.3858057609679415e+00 1.0049886456193009e+01 2.1980868166144138e+01 -2 -3 4
185 0 1 0.0000000000000000e+00 4.1887492024223842e+00 5.8048228982699852e+00 1.9445630465317496e+01 4 -3 0
537 0 1 0.0000000000000000e+00 2.2624482676525690e+00 2.3362830396779106e+00 1.6535360575544946e+01 -4 -2 3
377 0 1 0.0000000000000000e+00 1.5875040529256985e+01 1.2258958690584494e+01 1.9692889441168298e+01 5 -8 -3
271 0 1 0.0000000000000000e+00 1.7409915096917825e+01 8.7485636877193738e+00 2.2017581947901782e+01 -10 7 2
189 0 1 0.0000000000000000e+00 2.6313351557127960e+00 2.5519656477846859e+00 1.9827274860774608e+01 -7 1 8
675 0 1 0.0000000000000000e+00 1.5933384192535057e+01 1.5223456751030184e+01 2.1773387849819731e+01 9 0 1
328 0 1 0.0000000000000000e+00 1.4579329992490784e+01 9.6161633600872651e+00 1.5819999655851854e+01 -7 2 5
1004 0 1 0.0000000000000000e+00 4.6809830875239049e+00 7.8285818981477204e+00 1.4300638228052916e+01 -1 -2 2
874 0 1 0.0000000000000000e+00 3.5419613358260302e+00 5.2809040737063890e+00 2.2898192816434992e+01 -1 5 5
735 0 1 0.0000000000000000e+00 1.5202506364244055e+01 1.8551835022756225e+00 2.2746103171374067e+01 -1 1 3
711 0 1 0.0000000000000000e+00 1.3525944811022310e+01 5.9415033328347011e+00 1.2271414965764080e+01 -6 -4 3
691 0 1 0.0000000000000000e+00 7.3719722271558261e+00 8.7803173536422330e-01 2.3304039524503878e+01 0 5 1
851 0 1 0.0000000000000000e+00 9.7720917992750589e-01 3.0326818896117977e+00 1.2043181223563838e+01 6 1 -2
840 0 1 0.0000000000000000e+00 1.0935745561181070e+01 1.4019545478733836e+01 3.1002917576013733e+01 -1 -3 -12
466 0 1 0.0000000000000000e+00 1.6534609999643379e+01 1.1586705959832782e+01 2.4283330805011627e+01 -2 8 -3
816 0 1 0.0000000000000000e+00 1.4935150651454366e+01 1.5124687708635523e+01 3.3000855312444777e+01 2 1 -10
442 0 1 0.0000000000000000e+00 2.9063088028344413e+00 3.6133521240949045e+00 3.3618559706571091e+01 -5 0 1
689 0 1 0.0000000000000000e+00 4.0840807871766192e+00 4.4955895918076187e+00 2.9888315943655790e+01 -3 3 5
564 0 1 0.0000000000000000e+00 1.0074736076218640e+01 1.1231749279939994e+01 2.4824329837560150e+01 5 2 -1
83 0 1 0.0000000000000000e+00 7.3192276284571447e+00 1.2721162266493113e+01 2.5436666145803262e+01 0 -2 0
952 0 1 0.0000000000000000e+00 4.5828262869184675e+00 1.4506326285527052e+01 2.7981247424153157e+01 1 0 -1
906 0 1 0.0000000000000000e+00 8.4052973547289813e+00 6.6731358365762725e+00 3.4380675281923914e+01 8 -2 -1
500 0 1 0.0000000000000000e+00 1.3823437669397314e+00 1.6873714029928205e+01 2.6452646366783352e+01 0 -2 -5
887 0 1 0.0000000000000000e+00 1.4437764958348497e+01 1.1236625280978460e+01 3.0451115961105252e+01 -9 -5 -4
943 0 1 0.0000000000000000e+00 2.3377055596762344e+00 9.5684421652732361e+00 2.8517107284114523e+01 0 3 -2
489 0 1 0.0000000000000000e+00 1.0396572471224180e+01 4.0084544367149544e+00 3.3902960700703879e+01 1 3 0
413 0 1 0.0000000000000000e+00 2.4406882628404483e+00 3.4554746286466322e+00 2.6477506414952668e+01 -2 5 2
96 0 1 0.0000000000000000e+00 6.9922661248132663e+00 8.4233938925460397e+00 3.1482790979477983e+01 0 3 3
620 0 1 0.0000000000000000e+00 1.4077652976088290e+01 1.8430682456803111e+00 2.9746051627453891e+01 4 7 -5
994 0 1 0.0000000000000000e+00 1.3827908626382690e+01 7.0270101536492051e+00 2.9434886766477302e+01 5 7 -3
661 0 1 0.0000000000000000e+00 1.0143664747133283e+01 9.9282741408490338e+00 3.4311747346002498e+01 4 -6 2
1006 0 1 0.0000000000000000e+00 1.4061040654703300e+01 1.3021016814695279e+00 3.3429803852194041e+01 4 -6 -6
1 0 1 0.0000000000000000e+00 1.6119191192518350e+01 4.2537098944628857e+00 2.6723255239606388e+01 -10 -1 3
705 0 1 0.0000000000000000e+00 3.6588804022779211e+00 1.1590645479714647e+01 2.5526023945588705e+01 -1 7 -6
154 0 1 0.0000000000000000e+00 1.0717246865457346e+01 1.5968897045038799e+01 2.6701020187214958e+01 6 0 -3
156 0 1 0.0000000000000000e+00 1.3986784633402975e+01 5.1664928254124041e+00 3.4519099035583814e+01 5 -2 0
674 0 1 0.0000000000000000e+00 6.9075522139099492e+00 6.1366775081060707e+00 2.7818268015921664e+01 0 1 -5
107 0 1 0.0000000000000000e+00 4.4080004285271519e+00 6.6170762740880440e-01 3.0989362116455386e+01 2 5 -1
425 0 1 0.0000000000000000e+00 1.7293500596704121e+01 8.0612666786222089e+00 2.8106117848061253e+01 -6 0 -3
174 0 1 0.0000000000000000e+00 4.5739777245037923e+00 4.3479260113628382e-01 2.7255806559368750e+01 -5 0 -2
937 0 1 0.0000000000000000e+00 4.4685092469242171e-01 2.7428356752714258e+00 3.0505446321198573e+01 -3 -3 6
970 0 1 0.0000000000000000e+00 1.6353060034205527e+01 9.0925906712937232e-01 2.6129537860242955e+01 -2 1 -2
357 0 1 0.0000000000000000e+00 1.1021249115993458e+01 2.0753482152786196e-01 2.3630238816053666e+01 -6 1 1
399 0 1 0.0000000000000000e+00 1.8450347037510195e+00 2.1284399246744121e-01 2.4785161608533532e+01 -1 5 2
621 0 1 0.0000000000000000e+00 1.5554937412782953e+01 1.4451356650123293e+01 2.6709449651081172e+01 1 4 0
307 0 1 0.0000000000000000e+00 1.2905369375813059e+01 2.8964789423064925e+00 2.4801758963750775e+01 -5 3 0
99 0 1 0.0000000000000000e+00 1.0850738085958136e+01 4.0953158962195078e+00 2.8561430377966612e+01 6 6 -4
198 0 1 0.0000000000000000e+00 3.8356010145435011e+00 1.1520755916221411e+01 3.3046391264925205e+01 2 5 -1
8 0 1 0.0000000000000000e+00 1.3255946615401875e+01 8.5036024404827995e+00 3.2894680418798359e+01 -1 2 1
765 0 1 0.0000000000000000e+00 7.6579488029004521e+00 1.1787692206315077e+01 3.2689317188963663e+01 -5 6 1
891 0 1 0.0000000000000000e+00 1.6508385448256487e+01 1.3981299830109124e+01 3.0057290808942756e+01 3 0 8
718 0 1 0.0000000000000000e+00 5.5183803857009819e+00 1.1083936739215034e+01 3.0132699224274759e+01 -5 -7 -1
1007 0 1 0.0000000000000000e+00 1.0884689548554252e+00 5.7923321433226338e+00 3.0225188567470166e+01 5 7 1
631 0 1 0.0000000000000000e+00 3.9518613758307014e-01 1.0435904930672045e+01 2.4260698469974198e+01 2 5 -2
20 0 1 0.0000000000000000e+00 5.5560534668747037e+00 9.5835715260360104e+00 3.4916429118667068e+01 -1 0 -3
325 0 1 0.0000000000000000e+00 9.3448060086388445e+00 1.7333815699616313e+01 3.0000369340005975e+01 -4 -7 -1
213 0 1 0.0000000000000000e+00 1.2756908293113042e+01 1.2237004346678468e+01 3.3379726057162969e+01 2 -1 3
929 0 1 0.0000000000000000e+00 1.3005594104797762e+01 1.5131669848395530e+01 2.3987701683160360e+01 1 1 -1
253 0 1 0.0000000000000000e+00 1.0608030599768085e+01 6.6515957198179709e+00 3.1647685660197421e+01 -3 1 -7
567 0 1 0.0000000000000000e+00 8.4813363879245003e+00 1.6114008757365784e+01 3.3102672645741102e+01 1 6 2
218 0 1 0.0000000000000000e+00 5.5432189934222604e+00 1.4986270384892384e+01 3.1625367957487601e+01 -2 3 2
88 0 1 0.0000000000000000e+00 5.9746177938139935e+00 4.1082121536843577e+00 2.5601986635376271e+01 10 -5 2
323 0 1 0.0000000000000000e+00 1.3265078593356474e+01 4.3756974318369020e+00 3.1667477858983140e+01 1 5 -4
321 0 1 0.0000000000000000e+00 1.4537973890021449e+00 6.6710381516121675e+00 2.6206835790025568e+01 -7 -4 -4
183 0 1 0.0000000000000000e+00 4.8759639945077602e+00 1.4730325331871978e+01 2.3936684840052372e+01 0 -5 -4
208 0 1 0.0000000000000000e+00 1.4017843443925095e+01 1.0171571851919754e+01 2.7177874101592447e+01 -1 -4 -2
782 0 1 0.0000000000000000e+00 7.9014600961811077e+00 9.6461674799139203e+00 2.7940900111083021e+01 3 0 -8
248 0 1 0.0000000000000000e+00 1.6572589054781336e+01 1.1721885376103275e+01 3.4021832840122805e+01 -6 -1 -2
180 0 1 0.0000000000000000e+00 3.3499207078763580e+00 7.9992963433929232e+00 3.1978373487539663e+01 4 -4 7
815 0 1 0.0000000000000000e+00 7.8348731574332202e+00 1.3661498013049886e+01 2.9340242323696629e+01 -2 8 -9
883 0 1 0.0000000000000000e+00 1.3863781120036453e+01 1.6924399484322191e+01 2.8831473293202961e+01 -4 8 5
802 0 1 0.0000000000000000e+00 1.6878298830572760e+01 3.3547124629966065e+00 3.2609388905224684e+01 6 0 -4
138 0 1 0.0000000000000000e+00 5.6939727331116989e+00 2.0684827721074925e+00 3.4575201639516315e+01 6 4 -8
960 0 1 0.0000000000000000e+00 1.9135752622918880e+00 1.6104409582248525e+01 3.0315464388539116e+01 -2 5 0
40 0 1 0.0000000000000000e+00 1.3171072461280934e+01 6.2699065889302412e+00 2.6110419419711977e+01 -2 1 0
392 0 1 0.0000000000000000e+00 1.1177320145754246e+01 1.2711156151208813e+01 2.7637287446210248e+01 0 2 2
3 0 1 0.0000000000000000e+00 1.1238514594116544e+00 1.9004580100582960e-01 2.8293214205487260e+01 5 1 4
533 0 1 0.0000000000000000e+00 1.5915893769405873e+00 1.3866840944634376e+01 3.4609972169706722e+01 -4 -6 -3
934 0 1 0.0000000000000000e+00 1.3205401688601421e+00 6.7499881586596375e+00 3.4464440640242707e+01 5 2 2
421 0 1 0.0000000000000000e+00 7.2638935086497156e+00 1.6314896038279322e+01 2.6013580045137957e+01 1 -3 4
719 0 1 0.0000000000000000e+00 1.0814608988771795e+01 2.0261471272441200e+00 3.1527577648025307e+01 -3 4 5
333 0 1 0.0000000000000000e+00 5.2742348360433837e+00 8.4400882585592587e+00 2.5516544248185816e+01 -1 0 1
204 0 1 0.0000000000000000e+00 7.1560565407732311e+00 3.6322040499955439e+00 3.1837015853896755e+01 1 5 6
598 0 1 0.0000000000000000e+00 1.0947319155029167e+01 8.5282827428502532e+00 2.8037580444838390e+01 3 -5 2
401 0 1 0.0000000000000000e+00 1.6073417683270570e+00 1.2975177340079936e+01 3.0853516793835876e+01 -3 -5 -3
278 0 1 0.0000000000000000e+00 1.0406965930535989e+01 1.0328851839813286e+01 3.0888735839407989e+01 -5 1 -5
548 0 1 0.0000000000000000e+00 7.3727438919078248e+00 2.1514702998257635e+00 2.8876603679552574e+01 -2 0 9
618 0 1 0.0000000000000000e+00 9.1936239240792847e+00 7.7936361955660383e+00 2.5402628983488817e+01 1 -2 -2
230 0 1 0.0000000000000000e+00 8.7615298029940583e+00 1.1921474895489386e+00 2.6276608486057430e+01 -5 0 0
999 0 1 0.0000000000000000e+00 2.8847938819428792e-01 1.3559557021931013e+01 2.5819463695981892e+01 -3 12 3
194 0 1 0.0000000000000000e+00 9.4819538814295914e+00 4.1020652032887304e+00 2.4328510212104391e+01 1 0 -1
157 0 1 0.0000000000000000e+00 7.8566562879652502e-01 1.0101296090965777e+01 3.4734623382666918e+01 5 1 4
809 0 1 0.0000000000000000e+00 1.6757639598976045e+01 8.3480624514695165e+00 3.1364997019386074e+01 0 -3 3
990 0 1 0.0000000000000000e+00 1.1901667880854500e+01 1.5398454223257220e+01 3.4739297251864755e+01 -3 1 -1
58 0 1 0.0000000000000000e+00 1.6847522297361149e+01 7.2366510636985133e+00 2.4602840028234723e+01 -3 -3 -10
897 0 1 0.0000000000000000e+00 3.5535163708990729e+00 1.6574013964632748e+01 3.4164989585181992e+01 3 -3 -5
591 0 1 0.0000000000000000e+00 5.0553734728306727e+00 6.2000831870814270e+00 3.5150206928317701e+01 3 5 5
921 0 1 0.0000000000000000e+00 1.6886059169591690e+01 7.8711856952566874e+00 3.4635691229876137e+01 -2 1 9
305 0 1 0.0000000000000000e+00 1.3109798224880031e+01 9.4336806608143302e+00 2.3830169861618401e+01 1 -1 -2
613 0 1 0.0000000000000000e+00 2.5340192444584186e-01 9.0627702128808316e+00 3.1088110241184516e+01 6 4 4
911 0 1 0.0000000000000000e+00 1.0932418538539730e+01 5.2985022908013557e-01 3.4706459940263102e+01 -8 2 -4
708 0 1 0.0000000000000000e+00 1.5080232454643536e+01 2.5876381633897211e+01 6.4442373566573172e+00 -5 7 -5
235 0 1 0.0000000000000000e+00 8.4391775876616872e+00 2.1418985883619413e+01 2.7267876201128201e+00 -3 -1 8
472 0 1 0.0000000000000000e+00 1.2148916136745575e+01 1.8372420193422794e+01 1.0421985361812700e+01 -2 -4 -2
775 0 1 0.0000000000000000e+00 5.4789599209202215e+00 2.9995576674225404e+01 6.9336963467835782e+00 -1 5 1
946 0 1 0.0000000000000000e+00 1.0818813344649417e+01 2.3007309127810348e+01 4.2450215523878256e+00 3 3 -3
793 0 1 0.0000000000000000e+00 9.0640977288281839e+00 2.8756739817799314e+01 8.9720398457340156e-01 2 -2 3
353 0 1 0.0000000000000000e+00 8.3614292937125292e+00 2.4790073276696337e+01 3.2954850881586806e-01 -10 3 3
451 0 1 0.0000000000000000e+00 1.2857816569547659e+01 2.9179187283853672e+01 2.5018590897766479e+00 0 2 2
439 0 1 0.0000000000000000e+00 5.4387285022767156e+00 2.4199920461484446e+01 8.6846402299649714e+00 2 -1 8
659 0 1 0.0000000000000000e+00 2.9843853422136069e+00 2.8566306256074906e+01 3.4711652155815176e+00 6 -6 2
627 0 1 0.0000000000000000e+00 1.9453541336089242e+00 1.9807739730285419e+01 2.1297139730910954e+00 3 -2 2
935 0 1 0.0000000000000000e+00 9.6908980922942991e+00 3.2404827546167681e+01 1.1350990524374783e+01 13 5 -7
387 0 1 0.0000000000000000e+00 1.6301589782884079e+01 2.4986556046514238e+01 1.8231972676156065e+00 -7 -4 -3
986 0 1 0.0000000000000000e+00 9.8787900596409486e+00 3.3368527346605816e+01 2.6462870847826774e+00 3 3 -3
228 0 1 0.0000000000000000e+00 1.6341828358886747e+01 2.5064017799695506e+01 1.0044448316638784e+01 1 1 3
578 0 1 0.0000000000000000e+00 1.4835975405521282e+01 2.0797802485353355e+01 8.8708845483061829e+00 3 -1 -6
475 0 1 0.0000000000000000e+00 3.2067631790084268e+00 3.2141252118071698e+01 4.9469486307074249e+00 0 3 -2
346 0 1 0.0000000000000000e+00 8.0252920968398751e+00 2.4984476971660026e+01 6.4988279340253232e+00 1 -3 4
855 0 1 0.0000000000000000e+00 1.2359238222170067e+01 2.5235316919615574e+01 5.4573388158944758e-01 2 0 4
846 0 1 0.0000000000000000e+00 1.4226562334518155e+01 2.7301834769992052e+01 9.1552292419100176e+00 1 2 1